    9    9    1    1
  0.3416450E+02  0.3185000E-09  0.3185000E-09  0.3500000E-08  0.5000000E-15
  1.000000000000000E-004
  CAR 
 unknown system                          
     54      1    388
