       N       E                     dE             d eps       ncg     rms          rms(c)
DAV:   1    -0.578183612426E+05   -0.57818E+05   -0.66533E+05  1372   0.935E+02    0.197E+03
DAV:   2    -0.380895422900E+05    0.19729E+05   -0.13506E+04   820   0.237E+02    0.118E+03
DAV:   3    -0.182761146252E+05    0.19813E+05   -0.12402E+03  1456   0.558E+01    0.113E+03
DAV:   4    -0.136379285836E+05    0.46382E+04   -0.11256E+03  1528   0.339E+01    0.998E+02
DAV:   5    -0.938872623148E+04    0.42492E+04   -0.13052E+03  1512   0.254E+01    0.580E+02
DAV:   6    -0.534981075871E+04    0.40389E+04   -0.44404E+02  1364   0.163E+01    0.562E+02
DAV:   7    -0.172790457107E+05   -0.11929E+05   -0.25273E+05  1552   0.443E+01    0.832E+02
DAV:   8    -0.137046443034E+05    0.35744E+04   -0.63968E+03  1064   0.946E+01    0.985E+02
