BEGIN_CFG
Size
4
Supercell
2.457244 0.0 0.0
0.0 -2.457244 0.0
0.0 0.0 -2.457244
AtomData: id type cartes_x cartes_y cartes_z fx fy fz
1 0 0.0 0.0 0.0 0.0 -0.0 0.0 
2 0 0.0 -1.228622 -1.228622 0.0 -0.0 -0.0 
3 0 1.228622 -1.228622 0.0 -0.0 0.0 0.0 
4 0 1.228622 0.0 -1.228622 0.0 -0.0 -0.0 
Energy
-15.79300182
PlusStress: xx yy zz yz xz xy
26.253439887628005 26.253439887628005 26.253439887628005 -0.0 0.0 0.0
END_CFG
BEGIN_CFG
Size
8
Supercell
4.469615 0.0 0.0
0.0 4.469615 0.0
0.0 0.0 4.469615
AtomData: id type cartes_x cartes_y cartes_z fx fy fz
1 0 0.0 0.0 0.0 0.0 0.0 0.0 
2 0 2.234808 2.234808 0.0 0.0 -0.0 -0.0 
3 0 2.234808 0.0 2.234808 -0.0 -0.0 -0.0 
4 0 0.0 2.234808 2.234808 -0.0 -0.0 0.0 
5 0 2.234808 2.234808 2.234808 -0.0 0.0 0.0 
6 0 0.0 0.0 2.234808 -0.0 0.0 -0.0 
7 0 0.0 2.234808 0.0 0.0 0.0 -0.0 
8 0 2.234808 0.0 0.0 -0.0 -0.0 0.0 
Energy
-37.46464625
PlusStress: xx yy zz yz xz xy
-25.261941524264827 -25.261941524264827 -25.261941524264827 -0.0 0.0 0.0
END_CFG
BEGIN_CFG
Size
4
Supercell
3.499535 0.0 0.0
-1.749768 3.030686 0.0
0.0 0.0 2.475475
AtomData: id type cartes_x cartes_y cartes_z fx fy fz
1 0 0.0 0.0 0.0 0.0 -0.0 0.0 
2 0 -0.874884 1.515343 0.0 0.0 -0.0 -0.0 
3 0 1.749768 -0.0 0.0 -0.0 -0.0 0.0 
4 0 0.874884 1.515343 0.0 0.0 0.0 -0.0 
Energy
-22.73674989
PlusStress: xx yy zz yz xz xy
0.813128093385604 0.8131279799875679 4.473682523057566 0.0 0.0 -1.3420952537521702e-07
END_CFG
BEGIN_CFG
Size
6
Supercell
3.958416 0.0 0.0
0.0 3.958416 0.0
0.0 0.0 3.958416
AtomData: id type cartes_x cartes_y cartes_z fx fy fz
1 0 0.989604 0.989604 0.989604 -0.0 -0.0 -0.0 
2 0 2.968812 2.968812 2.968812 0.0 -0.0 0.0 
3 0 0.0 0.0 0.0 -0.0 0.0 0.0 
4 0 1.979208 1.979208 0.0 -0.0 0.0 0.0 
5 0 1.979208 0.0 1.979208 -0.0 0.0 0.0 
6 0 0.0 1.979208 1.979208 -0.0 0.0 0.0 
Energy
-33.07301921
PlusStress: xx yy zz yz xz xy
-6.337282606066775 -6.337282606066775 -6.337282606066775 0.0 0.0 -0.0
END_CFG
BEGIN_CFG
Size
8
Supercell
-4.424454 0.0 0.0
0.0 -4.265324 0.0
0.0 0.0 4.265324
AtomData: id type cartes_x cartes_y cartes_z fx fy fz
1 0 0.0 0.0 0.0 0.0 0.0 0.0 
2 0 0.0 -2.132662 2.132662 0.0 0.0 0.0 
3 0 0.0 -2.132662 0.0 0.0 0.0 0.0 
4 0 0.0 0.0 2.132662 0.0 0.0 0.0 
5 0 -3.418908 -3.198993 1.066331 1.42084206 0.0 -0.0 
6 0 -3.418908 -1.066331 3.198993 1.42084206 -0.0 -0.0 
7 0 -1.005546 -3.198993 1.066331 -1.42084206 -0.0 0.0 
8 0 -1.005546 -1.066331 3.198993 -1.42084206 0.0 -0.0 
Energy
-46.16307141
PlusStress: xx yy zz yz xz xy
-13.729232710476008 -11.604484917282916 -11.604484917282916 0.0 0.0 0.0
END_CFG
BEGIN_CFG
Size
5
Supercell
3.799902 0.0 0.0
0.0 -3.413134 0.0
-1.899951 0.0 -3.290812
AtomData: id type cartes_x cartes_y cartes_z fx fy fz
1 0 -2e-06 0.0 -2.193876 -0.0 0.0 -0.0 
2 0 1.899953 0.0 -1.096936 0.0 0.0 0.0 
3 0 1.899951 -1.706567 0.0 -0.0 0.0 0.0 
4 0 -0.949976 -1.706567 -1.645406 -0.0 0.0 0.0 
5 0 0.949976 -1.706567 -1.645406 0.0 0.0 0.0 
Energy
-28.36060897
PlusStress: xx yy zz yz xz xy
-10.3351897158138 -6.12272757683457 -10.33519182695698 0.0 0.0 -0.0
END_CFG
BEGIN_CFG
Size
6
Supercell
-3.567347 0.0 0.0
0.0 -3.238587 0.0
0.0 1.619294 2.804699
AtomData: id type cartes_x cartes_y cartes_z fx fy fz
1 0 -1.189115 -0.855793 1.375707 0.0 0.5846339 0.33753855 
2 0 -2.378229 -1.619294 0.053285 -0.0 -1.2e-07 -0.6750771 
3 0 0.0 -2.382795 1.375707 0.0 -0.58463378 0.33753855 
4 0 -2.972788 -0.810733 1.401723 0.0 1.50728194 0.87022966 
5 0 -0.594556 -1.619294 0.001254 -0.0 -3.1e-07 -1.74045933 
6 0 -1.783674 -2.427855 1.401723 0.0 -1.50728163 0.87022966 
Energy
-30.69396118
PlusStress: xx yy zz yz xz xy
21.51335090219016 12.447863923787072 12.44786734697806 2.2190270299402866e-06 0.0 0.0
END_CFG
BEGIN_CFG
Size
4
Supercell
2.433582 0.0 0.0
0.0 3.435631 0.0
0.0 0.0 3.397717
AtomData: id type cartes_x cartes_y cartes_z fx fy fz
1 0 2.110644 0.858908 2.626366 0.75872862 0.0 0.0 
2 0 2.110644 2.576723 0.927508 0.75872862 0.0 0.0 
3 0 0.322939 2.576723 2.626366 -0.75872862 0.0 0.0 
4 0 0.322939 0.858908 0.927508 -0.75872862 0.0 0.0 
Energy
-20.57053178
PlusStress: xx yy zz yz xz xy
-7.144744303196751 1.6771491217219285 0.14119496780320784 0.0 0.0 -0.0
END_CFG
BEGIN_CFG
Size
5
Supercell
-3.242828 0.0 0.0
0.0 -3.242828 0.0
0.0 0.0 3.242828
AtomData: id type cartes_x cartes_y cartes_z fx fy fz
1 0 -1.621414 -1.621414 1.621414 0.0 -0.0 0.0 
2 0 -2.63834 -2.63834 2.63834 1.5842255 1.5842255 -1.5842255 
3 0 -2.63834 -0.604488 0.604488 1.5842255 -1.5842255 1.5842255 
4 0 -0.604488 -0.604488 2.63834 -1.5842255 -1.5842255 -1.5842255 
5 0 -0.604488 -2.63834 0.604488 -1.5842255 1.5842255 1.5842255 
Energy
-27.50847745
PlusStress: xx yy zz yz xz xy
2.9549791839759125 2.9549791839759125 2.9549791839759125 -0.0 -0.0 0.0
END_CFG
BEGIN_CFG
Size
6
Supercell
-3.919456 0.0 0.0
0.0 -4.038623 0.0
0.0 0.0 3.919456
AtomData: id type cartes_x cartes_y cartes_z fx fy fz
1 0 -1.959728 -1.163945 1.959728 0.0 -4.09143138 0.0 
2 0 -1.959728 -2.874677 1.959728 0.0 4.09143138 0.0 
3 0 -1.086679 0.0 1.086679 0.60236833 0.0 -0.60236833 
4 0 -2.832778 0.0 2.832778 -0.60236833 0.0 0.60236833 
5 0 -1.086679 0.0 2.832778 0.60236833 0.0 0.60236833 
6 0 -2.832778 0.0 1.086679 -0.60236833 0.0 -0.60236833 
Energy
-34.30969921
PlusStress: xx yy zz yz xz xy
-5.8948544145752155 7.6439327921509 -5.8948544145752155 0.0 0.0 0.0
END_CFG
BEGIN_CFG
Size
4
Supercell
-3.118621 0.0 0.0
0.0 -3.187381 0.0
0.0 0.0 2.331525
AtomData: id type cartes_x cartes_y cartes_z fx fy fz
1 0 0.0 0.0 2.189103 0.0 0.0 -0.11062432 
2 0 -1.559311 -1.59369 1.023341 0.0 0.0 -0.11062432 
3 0 -1.559311 0.0 0.490838 0.0 0.0 0.11062432 
4 0 0.0 -1.59369 1.6566 0.0 0.0 0.11062432 
Energy
-20.19557542
PlusStress: xx yy zz yz xz xy
8.709998453040557 12.474679400825437 10.724097148907166 0.0 0.0 0.0
END_CFG
BEGIN_CFG
Size
8
Supercell
-3.556403 0.0 0.0
0.0 -3.556403 0.0
0.0 0.0 4.228255
AtomData: id type cartes_x cartes_y cartes_z fx fy fz
1 0 -2.671433 -3.2704 1.886455 2.07253807 -0.41873418 -1.77929218 
2 0 -0.88497 -0.286003 4.000582 -2.07253807 0.41873418 -1.77929218 
3 0 -3.2704 -0.88497 0.829391 -0.41873418 -2.07253807 -1.77929218 
4 0 -0.286003 -2.671433 2.943518 0.41873418 2.07253807 -1.77929218 
5 0 -3.075637 -2.76138 0.220549 0.43462762 2.75143599 1.77929218 
6 0 -0.480766 -0.795024 2.334676 -0.43462762 -2.75143599 1.77929218 
7 0 -2.76138 -0.480766 3.39174 2.75143599 -0.43462762 1.77929218 
8 0 -0.795024 -3.075637 1.277613 -2.75143599 0.43462762 1.77929218 
Energy
-44.87547115
PlusStress: xx yy zz yz xz xy
6.44357509966442 6.44357509966442 18.53649075742535 0.0 0.0 2.670316281687157e-09
END_CFG
BEGIN_CFG
Size
8
Supercell
-3.733304 0.0 0.0
0.0 4.372237 0.0
0.0 0.0 -4.372237
AtomData: id type cartes_x cartes_y cartes_z fx fy fz
1 0 -0.933326 2.186118 -3.443085 -0.0 -0.0 -1.04536693 
2 0 -0.933326 2.186118 -0.929152 -0.0 -0.0 1.04536693 
3 0 -2.799978 3.443085 -2.186118 0.0 1.04536693 -0.0 
4 0 -2.799978 0.929152 -2.186118 0.0 -1.04536693 -0.0 
5 0 -2.799978 2.186118 -0.929152 0.0 -0.0 1.04536693 
6 0 -2.799978 2.186118 -3.443085 0.0 -0.0 -1.04536693 
7 0 -0.933326 0.929152 -2.186118 -0.0 -1.04536693 -0.0 
8 0 -0.933326 3.443085 -2.186118 -0.0 1.04536693 -0.0 
Energy
-46.2109054
PlusStress: xx yy zz yz xz xy
2.2900286680408786 -7.40015388401423 -7.40015388401423 0.0 0.0 0.0
END_CFG
BEGIN_CFG
Size
4
Supercell
2.740233 0.0 0.0
0.0 2.740233 0.0
0.0 0.0 2.740233
AtomData: id type cartes_x cartes_y cartes_z fx fy fz
1 0 1.370116 1.370116 1.370116 0.0 0.0 0.0 
2 0 1.370116 0.0 0.0 0.0 0.0 -0.0 
3 0 0.0 1.370116 0.0 -0.0 -0.0 0.0 
4 0 0.0 0.0 1.370116 0.0 -0.0 0.0 
Energy
-20.93721704
PlusStress: xx yy zz yz xz xy
5.655733746166217 5.655733746166217 5.655733746166217 -0.0 -0.0 0.0
END_CFG
BEGIN_CFG
Size
8
Supercell
4.012556 0.0 0.0
-2.006278 3.474975 0.0
0.0 0.0 4.332759
AtomData: id type cartes_x cartes_y cartes_z fx fy fz
1 0 0.0 0.0 3.767113 -0.0 0.0 -0.33415593 
2 0 -2e-06 2.316651 2.889358 0.0 -0.0 -5.11875324 
3 0 2.00628 1.158324 2.889358 -0.0 0.0 -5.11875324 
4 0 -2e-06 2.316651 1.024946 -0.0 -0.0 5.14378281 
5 0 2.00628 1.158324 1.024946 0.0 -0.0 5.14378281 
6 0 2.006278 0.0 4.135022 0.0 0.0 0.09469893 
7 0 -1.003139 1.737488 4.135022 -0.0 -0.0 0.09469893 
8 0 1.003139 1.737488 4.135022 0.0 -0.0 0.09469893 
Energy
-43.66700059
PlusStress: xx yy zz yz xz xy
6.263561299061131 6.263559748531608 3.655669656258929 -0.0 0.0 0.0
END_CFG
BEGIN_CFG
Size
6
Supercell
4.041796 0.0 0.0
0.0 4.041796 0.0
0.0 0.0 3.02537
AtomData: id type cartes_x cartes_y cartes_z fx fy fz
1 0 0.0 2.020898 1.512685 -0.0 0.0 0.0 
2 0 2.020898 0.0 0.0 -0.0 0.0 0.0 
3 0 0.871602 2.020898 0.0 0.2613878 0.0 0.0 
4 0 3.170194 2.020898 0.0 -0.2613878 0.0 0.0 
5 0 2.020898 0.871602 1.512685 0.0 0.2613878 0.0 
6 0 2.020898 3.170194 1.512685 -0.0 -0.2613878 0.0 
Energy
-33.55217848
PlusStress: xx yy zz yz xz xy
-2.8435110831692634 -2.8435110831692634 -7.473020116649571 0.0 0.0 -0.0
END_CFG
BEGIN_CFG
Size
8
Supercell
-3.845052 0.0 0.0
0.0 -2.704595 0.0
0.0 0.0 3.845052
AtomData: id type cartes_x cartes_y cartes_z fx fy fz
1 0 -2.518465 -2.040709 2.518465 -1.26974635 -0.02247303 1.26974635 
2 0 -0.595939 -0.688411 0.595939 -1.26974635 -0.02247303 1.26974635 
3 0 -1.326587 -2.040709 1.326587 1.26974635 -0.02247303 -1.26974635 
4 0 -3.249113 -0.688411 3.249113 1.26974635 -0.02247303 -1.26974635 
5 0 -1.326587 -0.663886 2.518465 1.26974635 0.02247303 1.26974635 
6 0 -3.249113 -2.016184 0.595939 1.26974635 0.02247303 1.26974635 
7 0 -2.518465 -0.663886 1.326587 -1.26974635 0.02247303 -1.26974635 
8 0 -0.595939 -2.016184 3.249113 -1.26974635 0.02247303 -1.26974635 
Energy
-38.96190498
PlusStress: xx yy zz yz xz xy
26.5111654180278 20.884112995461443 26.5111654180278 -0.0 0.0 0.0
END_CFG
BEGIN_CFG
Size
8
Supercell
4.055954 0.0 0.0
0.0 4.181129 0.0
0.0 0.0 4.122403
AtomData: id type cartes_x cartes_y cartes_z fx fy fz
1 0 2.916449 0.0 0.810254 4.46986925 0.0 -0.32021757 
2 0 2.916449 2.090564 2.871455 4.46986925 -0.0 -0.32021757 
3 0 1.139506 0.0 0.810254 -4.46986925 0.0 -0.32021757 
4 0 1.139506 2.090564 2.871455 -4.46986925 -0.0 -0.32021757 
5 0 2.027977 0.992172 3.823138 0.0 -0.38718852 0.32021757 
6 0 2.027977 3.082737 1.761937 0.0 -0.38718852 0.32021757 
7 0 2.027977 3.188957 3.823138 -0.0 0.38718852 0.32021757 
8 0 2.027977 1.098392 1.761937 -0.0 0.38718852 0.32021757 
Energy
-46.73222351
PlusStress: xx yy zz yz xz xy
-1.0446094901432588 -3.423982243049007 -2.349198526644324 0.0 0.0 0.0
END_CFG
BEGIN_CFG
Size
8
Supercell
2.786946 0.0 0.0
0.0 3.874554 0.0
0.0 0.0 2.871612
AtomData: id type cartes_x cartes_y cartes_z fx fy fz
1 0 0.696736 2.905915 0.717903 0.0 -0.0 0.0 
2 0 2.090209 0.968638 2.153709 0.0 -0.0 0.0 
3 0 0.696736 0.968638 0.717903 -0.0 -0.0 0.0 
4 0 2.090209 2.905915 2.153709 -0.0 -0.0 0.0 
5 0 2.090209 1.963418 0.717903 0.0 -0.10783219 0.0 
6 0 2.090209 3.848413 0.717903 0.0 0.10783219 0.0 
7 0 0.696736 1.911136 2.153709 0.0 0.10783219 0.0 
8 0 0.696736 0.026141 2.153709 0.0 -0.10783219 0.0 
Energy
-29.94280311
PlusStress: xx yy zz yz xz xy
52.04308636143477 45.398474655895804 46.533445378110365 0.0 0.0 0.0
END_CFG
BEGIN_CFG
Size
4
Supercell
2.930359 0.0 0.0
-1.46518 2.537766 0.0
0.0 0.0 3.372228
AtomData: id type cartes_x cartes_y cartes_z fx fy fz
1 0 1.465181 0.845921 2.485547 -0.0 0.0 0.0 
2 0 -1e-06 1.691845 0.799432 0.0 0.0 -0.0 
3 0 1.465181 0.845921 0.799432 -0.0 0.0 -0.0 
4 0 -1e-06 1.691845 2.485547 0.0 0.0 0.0 
Energy
-22.81705298
PlusStress: xx yy zz yz xz xy
3.7459423238793206 3.745944283394279 14.106412698848944 -0.0 -0.0 -7.380072714136499e-07
END_CFG
BEGIN_CFG
Size
8
Supercell
3.690435 0.0 0.0
0.0 -4.331226 0.0
-1.845217 0.0 -3.19601
AtomData: id type cartes_x cartes_y cartes_z fx fy fz
1 0 0.0 0.0 0.0 -0.0 0.0 -0.0 
2 0 1.845217 0.0 0.0 0.0 0.0 -0.0 
3 0 -0.922609 0.0 -1.598005 -0.0 0.0 -0.0 
4 0 0.922609 0.0 -1.598005 -0.0 0.0 -0.0 
5 0 -2e-06 -1.323733 -2.130675 0.0 -3.0470708 0.0 
6 0 1.845219 -1.323733 -1.065336 -0.0 -3.0470708 -0.0 
7 0 1.845219 -3.007494 -1.065336 -0.0 3.0470708 -0.0 
8 0 -2e-06 -3.007494 -2.130675 0.0 3.0470708 0.0 
Energy
-43.23850117
PlusStress: xx yy zz yz xz xy
17.058127584320275 9.79100638159652 17.058122663192496 0.0 -2.6687728036878626e-06 0.0
END_CFG
BEGIN_CFG
Size
6
Supercell
3.455978 0.0 0.0
-1.727989 2.992965 0.0
0.0 0.0 2.848125
AtomData: id type cartes_x cartes_y cartes_z fx fy fz
1 0 0.0 0.0 1.974419 -0.0 0.0 -1.21663844 
2 0 1.727991 0.997654 0.762986 -0.0 0.0 0.34226839 
3 0 -2e-06 1.995311 0.762986 -0.0 -0.0 0.34226839 
4 0 -0.863995 1.496482 2.20644 0.0 0.0 0.17736722 
5 0 1.727989 -0.0 2.20644 -0.0 -0.0 0.17736722 
6 0 0.863995 1.496482 2.20644 0.0 0.0 0.17736722 
Energy
-29.2952476
PlusStress: xx yy zz yz xz xy
19.49929506322699 19.49929841305077 24.742326051249762 -0.0 -0.0 0.0
END_CFG
BEGIN_CFG
Size
8
Supercell
-4.403656 0.0 0.0
0.0 -4.403656 0.0
0.0 0.0 4.403656
AtomData: id type cartes_x cartes_y cartes_z fx fy fz
1 0 -3.533854 -3.533854 3.533854 -0.53354573 -0.53354573 0.53354573 
2 0 -0.869802 -1.332026 3.07163 0.53354573 -0.53354573 -0.53354573 
3 0 -1.332026 -3.07163 0.869802 -0.53354573 0.53354573 -0.53354573 
4 0 -3.07163 -0.869802 1.332026 0.53354573 0.53354573 0.53354573 
5 0 -2.43294 -4.172544 0.231112 -0.53354573 0.53354573 0.53354573 
6 0 -1.970716 -1.970716 1.970716 0.53354573 0.53354573 -0.53354573 
7 0 -4.172544 -0.231112 2.43294 0.53354573 -0.53354573 0.53354573 
8 0 -0.231112 -2.43294 4.172544 -0.53354573 -0.53354573 -0.53354573 
Energy
-46.11895074
PlusStress: xx yy zz yz xz xy
-2.5044992777313295 -2.5044992777313295 -2.5044992777313295 0.0 -0.0 -0.0
END_CFG
BEGIN_CFG
Size
6
Supercell
-3.703881 0.0 0.0
0.0 -3.589779 0.0
0.0 0.0 2.444582
AtomData: id type cartes_x cartes_y cartes_z fx fy fz
1 0 -1.85194 -1.417714 0.0 0.0 -0.18088601 0.0 
2 0 -1.85194 -3.212603 0.0 0.0 -0.18088601 0.0 
3 0 -2.709097 -2.357177 1.192345 -4.42758284 0.09044301 0.60349426 
4 0 -0.994784 -2.357177 1.252238 4.42758284 0.09044301 -0.60349426 
5 0 -0.994784 -0.562288 1.192345 4.42758284 0.09044301 0.60349426 
6 0 -2.709097 -0.562288 1.252238 -4.42758284 0.09044301 -0.60349426 
Energy
-31.35851426
PlusStress: xx yy zz yz xz xy
11.344939293882792 18.67899517177943 20.724583041437814 0.0 0.0 0.0
END_CFG
BEGIN_CFG
Size
4
Supercell
3.382674 0.0 0.0
0.0 -3.221544 0.0
-1.691337 0.0 -2.929482
AtomData: id type cartes_x cartes_y cartes_z fx fy fz
1 0 0.0 0.0 0.0 0.0 0.0 0.0 
2 0 0.842661 0.0 -1.466477 0.15266525 -0.0 0.08814133 
3 0 -0.842661 0.0 -1.466477 -0.15266525 -0.0 0.08814133 
4 0 0.0 0.0 -2.926009 0.0 0.0 -0.17628267 
Energy
-23.69291574
PlusStress: xx yy zz yz xz xy
1.4951433817130315 1.199534930975616 1.495143773045732 -0.0 0.0 -0.0
END_CFG
BEGIN_CFG
Size
6
Supercell
-3.805 0.0 0.0
0.0 -1.917763 0.0
0.0 0.0 3.806739
AtomData: id type cartes_x cartes_y cartes_z fx fy fz
1 0 0.0 0.0 0.0 -0.0 0.0 0.0 
2 0 -1.9025 0.0 0.0 0.0 0.0 0.0 
3 0 -0.95125 -0.958881 1.009726 -0.0 -0.0 4.83737797 
4 0 -0.95125 -0.958881 2.797014 0.0 0.0 -4.83737797 
5 0 -2.85375 -0.958881 2.797014 -0.0 0.0 -4.83737797 
6 0 -2.85375 -0.958881 1.009726 0.0 -0.0 4.83737797 
Energy
-28.01765312
PlusStress: xx yy zz yz xz xy
27.21458338941694 24.499777503753737 24.48312132927979 0.0 0.0 0.0
END_CFG
BEGIN_CFG
Size
4
Supercell
-2.212282 0.0 0.0
0.0 -3.179635 0.0
0.0 0.0 3.288337
AtomData: id type cartes_x cartes_y cartes_z fx fy fz
1 0 0.0 0.0 0.0 0.0 0.0 0.0 
2 0 0.0 -1.589818 1.644168 0.0 0.0 0.0 
3 0 -1.106141 -1.589818 0.0 -0.0 0.0 0.0 
4 0 -1.106141 0.0 1.644168 0.0 0.0 0.0 
Energy
-19.94238987
PlusStress: xx yy zz yz xz xy
0.4750879802183748 3.949358935848561 1.447606082438156 0.0 0.0 0.0
END_CFG
BEGIN_CFG
Size
8
Supercell
-4.269386 0.0 0.0
0.0 -4.269386 0.0
0.0 0.0 2.446834
AtomData: id type cartes_x cartes_y cartes_z fx fy fz
1 0 -1.067347 -4.051865 0.611709 0.0 -0.93243471 0.0 
2 0 -1.067347 -2.352214 0.611709 0.0 0.93243471 -0.0 
3 0 -4.051865 -1.067347 0.611709 -0.93243471 -0.0 -0.0 
4 0 -2.352214 -1.067347 0.611709 0.93243471 -0.0 0.0 
5 0 -3.20204 -0.217521 1.835126 0.0 0.93243471 -0.0 
6 0 -3.20204 -1.917172 1.835126 0.0 -0.93243471 0.0 
7 0 -0.217521 -3.20204 1.835126 0.93243471 -0.0 0.0 
8 0 -1.917172 -3.20204 1.835126 -0.93243471 -0.0 -0.0 
Energy
-43.87561221
PlusStress: xx yy zz yz xz xy
12.475609183280712 12.475609183280712 31.015115396970167 0.0 0.0 0.0
END_CFG
BEGIN_CFG
Size
6
Supercell
-3.314125 0.0 0.0
0.0 -3.978833 0.0
0.0 0.0 3.314125
AtomData: id type cartes_x cartes_y cartes_z fx fy fz
1 0 0.0 0.0 0.0 0.0 0.0 0.0 
2 0 -1.657062 0.0 1.657062 0.0 0.0 0.0 
3 0 -1.657062 -3.126292 0.0 -0.0 2.73338924 0.0 
4 0 0.0 -0.852541 1.657062 0.0 -2.73338924 -0.0 
5 0 0.0 -3.126292 1.657062 -0.0 2.73338924 -0.0 
6 0 -1.657062 -0.852541 0.0 0.0 -2.73338924 0.0 
Energy
-31.67926681
PlusStress: xx yy zz yz xz xy
5.353265097632501 -7.9646549175901455 5.353265097632501 0.0 0.0 0.0
END_CFG
BEGIN_CFG
Size
7
Supercell
4.146709 0.0 0.0
-2.073355 3.591156 0.0
0.0 0.0 4.132091
AtomData: id type cartes_x cartes_y cartes_z fx fy fz
1 0 -2e-06 2.394105 2.050765 0.0 -0.0 -1.32300664 
2 0 1.126597 1.743662 0.03739 -0.22218561 0.12827893 0.89972274 
3 0 2.073355 0.103831 0.03739 4e-08 -0.25655787 0.89972274 
4 0 3.020112 1.743662 0.03739 0.22218557 0.12827893 0.89972274 
5 0 -1.216767 3.096604 3.096332 0.26134194 -0.15088586 -0.45872053 
6 0 0.0 0.989103 3.096332 -4e-08 0.30177171 -0.45872053 
7 0 1.216767 3.096604 3.096332 -0.2613419 -0.15088586 -0.45872053 
Energy
-40.94824953
PlusStress: xx yy zz yz xz xy
-3.4518213282843604 -3.451822604510569 -3.5388127414888175 0.0 0.0 4.804571131533312e-07
END_CFG
BEGIN_CFG
Size
4
Supercell
1.706828 0.0 0.0
0.0 -3.045235 0.0
0.0 0.0 -3.434552
AtomData: id type cartes_x cartes_y cartes_z fx fy fz
1 0 0.853414 0.0 0.0 -0.0 0.0 0.0 
2 0 0.0 0.0 -1.717276 0.0 -0.0 0.0 
3 0 0.853414 -1.522617 -1.717276 -0.0 -0.0 0.0 
4 0 0.0 -1.522617 0.0 0.0 0.0 -0.0 
Energy
-19.4845045
PlusStress: xx yy zz yz xz xy
9.496280506960426 19.58661485611133 16.67932375267202 0.0 0.0 0.0
END_CFG
BEGIN_CFG
Size
4
Supercell
3.085748 0.0 0.0
0.0 3.085748 0.0
0.0 0.0 2.975624
AtomData: id type cartes_x cartes_y cartes_z fx fy fz
1 0 1.542874 0.0 2.054734 0.0 -0.0 -0.81249433 
2 0 0.0 1.542874 2.054734 0.0 -0.0 -0.81249433 
3 0 0.0 0.0 0.051747 0.0 0.0 0.81249433 
4 0 1.542874 1.542874 0.051747 -0.0 -0.0 0.81249433 
Energy
-20.51504772
PlusStress: xx yy zz yz xz xy
-4.479398245392308 -4.479398245392308 0.032837829688388866 0.0 0.0 0.0
END_CFG
BEGIN_CFG
Size
6
Supercell
3.605789 0.0 0.0
0.0 -3.405218 0.0
-1.802894 0.0 -3.122705
AtomData: id type cartes_x cartes_y cartes_z fx fy fz
1 0 1.802894 -1.644414 0.0 0.0 -0.20763047 -0.0 
2 0 -0.901447 -1.644414 -1.561352 -0.0 -0.20763047 0.0 
3 0 0.901447 -1.644414 -1.561352 -0.0 -0.20763047 0.0 
4 0 1.802894 -3.355271 0.0 0.0 0.20763047 0.0 
5 0 -0.901447 -3.355271 -1.561352 0.0 0.20763047 -0.0 
6 0 0.901447 -3.355271 -1.561352 -0.0 0.20763047 -0.0 
Energy
-31.85279523
PlusStress: xx yy zz yz xz xy
7.089056901935465 19.29234759113938 7.089057471021134 -0.0 -1.1350602713825876e-06 -0.0
END_CFG
BEGIN_CFG
Size
8
Supercell
-3.965955 0.0 0.0
0.0 -2.840854 0.0
0.0 0.0 3.965955
AtomData: id type cartes_x cartes_y cartes_z fx fy fz
1 0 -0.761288 -0.697303 1.4288 0.20428698 -0.4122431 -0.10125733 
2 0 -3.204668 -0.697303 2.537155 -0.20428698 -0.4122431 0.10125733 
3 0 -1.4288 -0.697303 3.204668 0.10125733 -0.4122431 0.20428698 
4 0 -2.537155 -0.697303 0.761288 -0.10125733 -0.4122431 -0.20428698 
5 0 -0.761288 -2.143551 2.537155 0.20428698 0.4122431 0.10125733 
6 0 -3.204668 -2.143551 1.4288 -0.20428698 0.4122431 -0.10125733 
7 0 -1.4288 -2.143551 0.761288 0.10125733 0.4122431 -0.20428698 
8 0 -2.537155 -2.143551 3.204668 -0.10125733 0.4122431 0.20428698 
Energy
-41.41704551
PlusStress: xx yy zz yz xz xy
16.57040213372008 12.412525806509326 16.57040213372008 0.0 0.0 0.0
END_CFG
BEGIN_CFG
Size
6
Supercell
4.024667 0.0 0.0
0.0 -3.852375 0.0
-2.012334 0.0 -3.485464
AtomData: id type cartes_x cartes_y cartes_z fx fy fz
1 0 -1.167114 -0.91837 -2.997476 1.87298379 0.2852949 1.08136765 
2 0 1.167114 -0.91837 -2.997476 -1.87298348 0.2852949 1.08136765 
3 0 -0.0 -0.91837 -0.975976 -3.1e-07 0.2852949 -2.1627353 
4 0 3.179447 -2.934005 -0.487988 -1.87298379 -0.2852949 -1.08136765 
5 0 2.012334 -2.934005 -2.509488 3.1e-07 -0.2852949 2.1627353 
6 0 0.84522 -2.934005 -0.487988 1.87298348 -0.2852949 -1.08136765 
Energy
-32.3917401
PlusStress: xx yy zz yz xz xy
-9.014723069957741 -6.431656567019712 -9.01472377490237 0.0 -1.2931855060872536e-06 -0.0
END_CFG
BEGIN_CFG
Size
4
Supercell
3.328956 0.0 0.0
1.052696 -2.354619 0.0
0.0 0.0 -2.799524
AtomData: id type cartes_x cartes_y cartes_z fx fy fz
1 0 1.886206 -2.11067 0.0 -0.02309657 1.13471282 -0.0 
2 0 2.495446 -0.24395 0.0 0.02309657 -1.13471282 0.0 
3 0 1.414636 -0.855152 -1.399762 -0.47869992 0.37056396 0.0 
4 0 2.967016 -1.499468 -1.399762 0.47869992 -0.37056396 0.0 
Energy
-22.08304364
PlusStress: xx yy zz yz xz xy
1.5576911932928899 9.631298287989171 5.619244312265592 0.0 0.0 -3.5536421208075604
END_CFG
BEGIN_CFG
Size
8
Supercell
-3.959191 0.0 0.0
0.0 -3.390133 0.0
0.0 1.695066 2.935941
AtomData: id type cartes_x cartes_y cartes_z fx fy fz
1 0 -1.018856 0.0 0.0 1.52431206 0.0 -0.0 
2 0 -2.940335 0.0 0.0 -1.52431206 0.0 -0.0 
3 0 -2.819795 0.853591 1.478463 -0.27275964 -0.10070935 -0.17443375 
4 0 -2.819795 -1.707182 -0.0 -0.27275964 0.20141876 -0.0 
5 0 -2.819795 -0.841475 1.457478 -0.27275964 -0.10070941 0.17443375 
6 0 -1.139395 0.853591 1.478463 0.27275964 -0.10070935 -0.17443375 
7 0 -1.139395 -1.707182 -0.0 0.27275964 0.20141876 -0.0 
8 0 -1.139395 -0.841475 1.457478 0.27275964 -0.10070941 0.17443375 
Energy
-41.63334942
PlusStress: xx yy zz yz xz xy
30.168896775637542 27.707047554251453 27.707041887881868 -4.718695221525922e-06 0.0 -0.0
END_CFG
BEGIN_CFG
Size
6
Supercell
-2.424298 0.0 0.0
0.0 3.716952 0.0
0.0 0.0 -3.372514
AtomData: id type cartes_x cartes_y cartes_z fx fy fz
1 0 -0.832574 1.858476 0.0 -0.81979195 0.0 -0.0 
2 0 -0.832574 0.0 -1.686257 -0.81979195 0.0 -0.0 
3 0 -2.091941 0.929238 -0.843128 0.40989598 -0.0 0.0 
4 0 -2.091941 2.787714 -2.529385 0.40989598 0.0 0.0 
5 0 -2.091941 2.787714 -0.843128 0.40989598 0.0 -0.0 
6 0 -2.091941 0.929238 -2.529385 0.40989598 0.0 -0.0 
Energy
-33.1472094
PlusStress: xx yy zz yz xz xy
21.583903319697267 16.00236687304575 17.862330702580195 0.0 0.0 0.0
END_CFG
BEGIN_CFG
Size
8
Supercell
4.431576 0.0 0.0
0.0 -2.3033 0.0
0.0 0.0 -4.431576
AtomData: id type cartes_x cartes_y cartes_z fx fy fz
1 0 2.870692 0.0 -0.654904 0.05547718 0.0 -0.05547718 
2 0 0.654904 -1.15165 -2.870692 0.05547718 -0.0 -0.05547718 
3 0 1.560884 0.0 -3.776672 -0.05547718 0.0 0.05547718 
4 0 3.776672 -1.15165 -1.560884 -0.05547718 0.0 0.05547718 
5 0 0.654904 0.0 -1.560884 0.05547718 0.0 0.05547718 
6 0 2.870692 -1.15165 -3.776672 0.05547718 -0.0 0.05547718 
7 0 3.776672 0.0 -2.870692 -0.05547718 0.0 -0.05547718 
8 0 1.560884 -1.15165 -0.654904 -0.05547718 -0.0 -0.05547718 
Energy
-39.51379128
PlusStress: xx yy zz yz xz xy
14.481599536050547 34.173369353552154 14.481599536050547 -0.0 0.0 -0.0
END_CFG
BEGIN_CFG
Size
8
Supercell
-4.365988 0.0 0.0
0.0 -4.187402 0.0
0.0 0.0 4.187402
AtomData: id type cartes_x cartes_y cartes_z fx fy fz
1 0 0.0 0.0 0.0 0.0 0.0 0.0 
2 0 0.0 -2.093701 2.093701 0.0 0.0 0.0 
3 0 -1.71134 0.0 2.093701 -0.35552887 0.0 0.0 
4 0 -2.654648 -2.093701 0.0 0.35552887 0.0 0.0 
5 0 -2.182994 -3.592872 3.592872 0.0 0.24881603 -0.24881603 
6 0 -2.182994 -0.594529 0.594529 0.0 -0.24881603 0.24881603 
7 0 -2.182994 -2.68823 1.499171 0.0 -0.24881603 -0.24881603 
8 0 -2.182994 -1.499171 2.68823 0.0 0.24881603 0.24881603 
Energy
-40.63400772
PlusStress: xx yy zz yz xz xy
-16.927172784274596 4.821266798360063 4.821266798360063 0.0 0.0 0.0
END_CFG
BEGIN_CFG
Size
4
Supercell
-3.49012 0.0 0.0
0.0 -3.49012 0.0
0.0 0.0 3.49012
AtomData: id type cartes_x cartes_y cartes_z fx fy fz
1 0 -0.436265 -0.436265 0.436265 -0.0 -0.0 0.0 
2 0 -2.181325 -1.308795 3.053855 0.0 -0.0 0.0 
3 0 -1.308795 -3.053855 2.181325 -0.0 0.0 0.0 
4 0 -3.053855 -2.181325 1.308795 0.0 0.0 0.0 
Energy
-21.103371
PlusStress: xx yy zz yz xz xy
-13.30288003317801 -13.30288003317801 -13.30288003317801 0.0 -0.0 0.0
END_CFG
BEGIN_CFG
Size
6
Supercell
-4.03789 0.0 0.0
0.0 -4.059928 0.0
0.0 0.0 3.364442
AtomData: id type cartes_x cartes_y cartes_z fx fy fz
1 0 0.0 -3.88565 0.0 -0.0 -0.35549893 -0.0 
2 0 -2.018945 -3.88565 1.682221 -0.0 -0.35549893 -0.0 
3 0 -0.487505 -2.465577 0.839937 -0.18042943 0.17774946 0.4893219 
4 0 -3.550384 -2.465577 2.524504 0.18042943 0.17774946 -0.4893219 
5 0 -1.53144 -2.465577 2.522158 0.18042943 0.17774946 0.4893219 
6 0 -2.50645 -2.465577 0.842284 -0.18042943 0.17774946 -0.4893219 
Energy
-31.20126018
PlusStress: xx yy zz yz xz xy
-10.003349631799411 -3.513108552836549 -8.322130697327589 0.0 0.0 0.0
END_CFG
BEGIN_CFG
Size
4
Supercell
2.582771 0.0 0.0
-1.291385 2.236745 0.0
0.0 0.0 3.468384
AtomData: id type cartes_x cartes_y cartes_z fx fy fz
1 0 -1e-06 1.491164 2.369393 -0.0 0.0 0.80785569 
2 0 1.291387 0.745581 0.635201 0.0 0.0 0.80785569 
3 0 0.0 0.0 1.577846 0.0 -0.0 -0.80785569 
4 0 0.0 0.0 3.312038 -0.0 0.0 -0.80785569 
Energy
-22.34102937
PlusStress: xx yy zz yz xz xy
14.410466427885178 14.410462586035464 4.605700751160705 0.0 0.0 3.2213009406488844e-06
END_CFG
BEGIN_CFG
Size
5
Supercell
3.621925 0.0 0.0
-1.810963 3.136679 0.0
0.0 0.0 3.763128
AtomData: id type cartes_x cartes_y cartes_z fx fy fz
1 0 0.0 0.0 1.881564 -0.0 0.0 0.0 
2 0 0.0 0.0 0.0 -0.0 0.0 0.0 
3 0 -0.905481 1.56834 1.881564 -0.0 0.0 0.0 
4 0 1.810963 -0.0 1.881564 -0.0 0.0 0.0 
5 0 0.905481 1.56834 1.881564 0.0 0.0 0.0 
Energy
-26.58662533
PlusStress: xx yy zz yz xz xy
-2.3029800092137562 -2.3029799203566097 -2.95814953782477 0.0 0.0 3.671694710906144e-07
END_CFG
BEGIN_CFG
Size
4
Supercell
2.931943 0.0 0.0
0.0 2.931943 0.0
0.0 0.0 2.931943
AtomData: id type cartes_x cartes_y cartes_z fx fy fz
1 0 0.0 0.0 0.0 0.0 -0.0 0.0 
2 0 1.465971 0.0 1.465971 -0.0 -0.0 -0.0 
3 0 0.0 1.465971 1.465971 0.0 0.0 0.0 
4 0 1.465971 1.465971 0.0 -0.0 0.0 -0.0 
Energy
-21.34591657
PlusStress: xx yy zz yz xz xy
-2.7528289022709043 -2.7528289022709043 -2.7528289022709043 0.0 -0.0 0.0
END_CFG
BEGIN_CFG
Size
6
Supercell
-3.939452 0.0 0.0
0.0 -3.614582 0.0
0.0 0.0 4.048222
AtomData: id type cartes_x cartes_y cartes_z fx fy fz
1 0 0.0 -0.7527 0.0 0.0 0.08257022 0.0 
2 0 0.0 -2.559991 0.0 0.0 0.08257022 0.0 
3 0 -1.523538 -3.203546 3.300146 0.39298403 -0.04128511 0.20893763 
4 0 -2.415914 -3.203546 0.748076 -0.39298403 -0.04128511 -0.20893763 
5 0 -2.415914 -1.396255 3.300146 -0.39298403 -0.04128511 0.20893763 
6 0 -1.523538 -1.396255 0.748076 0.39298403 -0.04128511 -0.20893763 
Energy
-32.88965508
PlusStress: xx yy zz yz xz xy
-6.843185338835816 -12.34382082482919 -3.4554661170601717 0.0 0.0 0.0
END_CFG
BEGIN_CFG
Size
6
Supercell
-2.419137 0.0 0.0
0.0 -3.462972 0.0
0.0 1.731486 2.999021
AtomData: id type cartes_x cartes_y cartes_z fx fy fz
1 0 -0.604784 -2.171258 1.916061 -0.0 2.65314612 -1.53262362 
2 0 -0.604784 -0.717986 0.922334 0.0 -2.65386437 -1.53137957 
3 0 -0.604784 -2.305214 0.160627 0.0 0.00071826 3.06400319 
4 0 -1.814353 0.439772 1.082961 0.0 -2.65314612 1.53262362 
5 0 -1.814353 -1.0135 2.076687 -0.0 2.65386437 1.53137957 
6 0 -1.814353 0.573728 2.838395 -0.0 -0.00071826 -3.06400319 
Energy
-26.8607136
PlusStress: xx yy zz yz xz xy
36.30817732702057 28.581627298960758 28.581613487767175 8.640326611866275e-08 0.0 0.0
END_CFG
BEGIN_CFG
Size
8
Supercell
-4.135972 0.0 0.0
0.0 -4.135972 0.0
0.0 0.0 3.583328
AtomData: id type cartes_x cartes_y cartes_z fx fy fz
1 0 -2.83572 -2.202293 2.156094 0.84443701 0.25653377 -0.59205739 
2 0 -3.368237 -4.001665 2.156094 -0.84443701 -0.25653377 -0.59205739 
3 0 -0.134307 -1.300251 0.36443 0.25653377 -0.84443701 -0.59205739 
4 0 -1.933679 -0.767734 0.36443 -0.25653377 0.84443701 -0.59205739 
5 0 -1.300251 -1.933679 1.427234 -0.84443701 -0.25653377 0.59205739 
6 0 -0.767734 -0.134307 1.427234 0.84443701 0.25653377 0.59205739 
7 0 -4.001665 -2.83572 3.218897 -0.25653377 0.84443701 0.59205739 
8 0 -2.202293 -3.368237 3.218897 0.25653377 -0.84443701 0.59205739 
Energy
-42.09744648
PlusStress: xx yy zz yz xz xy
-0.8385421050118437 -0.8385421050118437 -0.27157832364038825 -0.0 0.0 2.6781160544181816e-09
END_CFG
BEGIN_CFG
Size
4
Supercell
2.317513 0.0 0.0
0.0 2.433563 0.0
0.0 0.0 3.36866
AtomData: id type cartes_x cartes_y cartes_z fx fy fz
1 0 0.0 1.216782 3.180526 -0.0 0.0 0.0 
2 0 1.158756 0.0 1.496195 0.0 0.0 0.0 
3 0 1.158756 0.0 3.180526 0.0 -0.0 0.0 
4 0 0.0 1.216782 1.496195 -0.0 -0.0 0.0 
Energy
-19.5786474
PlusStress: xx yy zz yz xz xy
17.154928705418158 17.54419845412653 16.927222863754576 0.0 0.0 0.0
END_CFG
BEGIN_CFG
Size
6
Supercell
-2.931671 0.0 0.0
0.0 3.147126 0.0
0.0 0.0 -3.776725
AtomData: id type cartes_x cartes_y cartes_z fx fy fz
1 0 -2.702159 0.0 0.0 0.64058617 -0.0 -0.0 
2 0 -1.236324 1.573563 0.0 0.64058617 -0.0 -0.0 
3 0 -1.159593 0.0 -2.758173 -0.32029308 -0.0 1.56403921 
4 0 -2.625428 1.573563 -2.758173 -0.32029308 0.0 1.56403921 
5 0 -1.159593 0.0 -1.018552 -0.32029308 -0.0 -1.56403921 
6 0 -2.625428 1.573563 -1.018552 -0.32029308 -0.0 -1.56403921 
Energy
-32.64332522
PlusStress: xx yy zz yz xz xy
6.996835574635513 13.40905650416669 5.697281800365972 0.0 0.0 0.0
END_CFG
BEGIN_CFG
Size
8
Supercell
-3.497742 0.0 0.0
0.0 -3.1604 0.0
0.0 0.0 4.209403
AtomData: id type cartes_x cartes_y cartes_z fx fy fz
1 0 -0.874435 -1.5802 1.052351 -0.0 0.0 0.0 
2 0 -2.623306 -1.5802 3.157052 -0.0 0.0 0.0 
3 0 -0.874435 -1.5802 3.157052 0.0 0.0 0.0 
4 0 -2.623306 -1.5802 1.052351 0.0 -0.0 0.0 
5 0 0.0 0.0 3.197387 -0.0 0.0 0.9540439 
6 0 -1.748871 0.0 1.092686 -0.0 -0.0 0.9540439 
7 0 0.0 0.0 1.012016 -0.0 0.0 -0.9540439 
8 0 -1.748871 0.0 3.116717 -0.0 -0.0 -0.9540439 
Energy
-44.64360524
PlusStress: xx yy zz yz xz xy
3.5858848745873253 13.5084164507563 10.123119802548434 0.0 0.0 0.0
END_CFG
BEGIN_CFG
Size
8
Supercell
-4.435584 0.0 0.0
0.0 -4.401763 0.0
0.0 0.0 3.599206
AtomData: id type cartes_x cartes_y cartes_z fx fy fz
1 0 -0.349601 0.0 0.0 -0.41623811 0.0 0.0 
2 0 -0.349601 -2.200881 1.799603 -0.41623811 0.0 0.0 